 -6.2592310e-01   1.1566375e-01
 -1.0556296e+00   9.2988901e-02
  2.1197467e+00   8.7392583e-02
  4.0722913e-01   1.0713108e-01
 -1.9873962e-01   8.1568234e-02
  3.7284014e-01   7.7482283e-02
  6.5146548e-01   7.9602994e-02
  2.3115186e-01   9.3970910e-02
 -1.4085100e+00   1.0120191e-01
  4.2124897e-01   1.0052478e-01
 -6.6793430e-01   1.1551096e-01
  7.9544073e-01   1.1428222e-01
 -4.4157356e-01   9.4629921e-02
  7.8874677e-01   1.0327125e-01
  4.8220817e-02   6.3028909e-02
 -1.4920124e+00   1.3188119e-01
  1.8201494e-01   1.1634587e-01
 -3.2381111e-01   9.9993825e-02
 -3.0202571e-01   5.9208736e-02
 -2.8134432e-01   1.0615405e-01
 -2.8459841e-01   1.0528245e-01
  1.8437383e-01   1.0714716e-01
 -2.7206847e-01   1.1602239e-01
 -5.3623088e-02   9.2619106e-02
  8.3316177e-01   7.5448841e-02
  6.3053203e-01   1.3521244e-01
 -6.9234069e-03   1.1883416e-01
  8.0659859e-02   1.2371536e-01
 -1.2918979e+00   1.2694722e-01
  7.0403749e-01   9.2632703e-02
  3.6997938e-01   1.2790409e-01
 -1.0427582e+00   9.2957966e-02
 -7.9671079e-01   9.0374641e-02
 -1.1168694e+00   8.0242552e-02
 -5.1370107e-02   7.0984818e-02
 -2.9633548e-02   8.3561063e-02
  4.8662162e-01   1.6015312e-01
  6.4704078e-01   1.0470761e-01
  1.0651183e+00   1.3050659e-01
 -1.7836020e+00   1.1562492e-01
  2.6530457e-01   9.6493959e-02
 -5.6588441e-01   8.2641631e-02
 -9.2191011e-02   1.0217117e-01
  1.6501056e+00   1.1211852e-01
 -3.3536139e-01   1.2596482e-01
  1.5861107e+00   1.0023575e-01
 -2.9548034e-01   9.3564749e-02
 -1.5935560e+00   1.0242476e-01
 -4.5360896e-01   1.1998545e-01
 -5.9434766e-01   1.0855281e-01
  2.1037059e-01   1.2209005e-01
  6.0729432e-01   1.1069354e-01
  1.7735295e+00   9.0573132e-02
 -1.2316211e-01   1.0202713e-01
  8.5024351e-01   8.7458186e-02
 -5.4339092e-02   1.2050987e-01
 -4.2776144e-01   9.0498179e-02
 -2.5275680e-01   1.0747229e-01
 -5.0687242e-01   1.1471309e-01
 -3.2428792e-01   1.0176006e-01
 -6.4785916e-01   1.0110047e-01
  7.0957857e-01   1.2758797e-01
  8.1484950e-01   8.3019704e-02
  7.9476732e-01   8.2444459e-02
  1.2433763e+00   1.0254087e-01
 -2.7429307e-01   1.1346522e-01
 -9.0224081e-01   8.2996905e-02
  6.2570596e-01   1.2103803e-01
  2.4545410e-01   9.0048984e-02
 -8.5595626e-01   1.2037253e-01
 -6.2062407e-01   9.3496040e-02
 -7.0271146e-01   9.7942092e-02
  1.0432944e-01   1.2348636e-01
 -1.8374462e-01   9.8721988e-02
 -9.6610284e-01   1.0838079e-01
 -5.3504801e-01   8.9494631e-02
  4.6422258e-02   1.1912669e-01
  8.2177985e-01   1.0393423e-01
 -1.2073590e+00   1.0847338e-01
 -1.3813188e+00   7.5788237e-02
  6.7711604e-01   7.0977375e-02
  7.6183367e-01   8.2843073e-02
 -7.2658193e-01   7.5509086e-02
 -1.3080002e-01   8.8356197e-02
  4.0772125e-01   8.4747113e-02
 -1.0105361e-01   8.5644148e-02
 -5.3362828e-01   9.5365331e-02
 -1.5168643e+00   1.0753226e-01
  1.0232549e+00   1.0348910e-01
 -1.0138323e-01   1.0283852e-01
 -1.3329964e+00   9.4121031e-02
  1.2718395e+00   1.1020144e-01
  1.5480767e+00   1.1373714e-01
  4.1324812e-01   9.1832206e-02
 -1.0604101e+00   1.0869350e-01
 -5.5051011e-01   1.3134991e-01
  6.1533290e-01   1.2228055e-01
  9.7546738e-01   1.0598148e-01
  8.6815797e-02   1.0517991e-01
  4.8321435e-01   7.5466983e-02
  2.0635773e-01   7.9471268e-02
 -4.2899769e-02   1.0873211e-01
  1.3353516e-01   1.2339593e-01
 -1.1129997e+00   6.7708649e-02
  8.8064671e-01   9.6135341e-02
  4.9295810e-01   7.3564991e-02
  1.9914636e-01   8.9494191e-02
  9.1593914e-02   9.1353752e-02
  1.6391430e+00   7.4391551e-02
  6.5240538e-01   1.2372232e-01
  1.3610066e-01   1.0928360e-01
 -7.8694111e-01   9.4440810e-02
 -5.6059235e-01   1.0870606e-01
  2.2834430e+00   1.3667925e-01
  1.0721772e+00   1.0881138e-01
  6.9375181e-01   8.9417569e-02
 -2.4641922e-01   1.2571527e-01
  1.6829667e+00   1.0281571e-01
 -1.3785481e-01   1.2762193e-01
  1.6058944e-01   9.2626527e-02
  9.0027630e-01   9.8765261e-02
  1.0767738e+00   1.0999484e-01
  2.0988144e-01   9.1162018e-02
  1.0254519e+00   1.0135447e-01
 -1.1315541e-01   8.8775985e-02
 -6.1021566e-01   8.0278121e-02
  1.3227729e+00   1.2430074e-01
 -1.3829912e+00   9.2900440e-02
  7.5005883e-01   9.7287528e-02
  4.1372722e-01   1.1357440e-01
  1.0668090e-01   1.3895006e-01
  2.8082386e-01   1.1821155e-01
 -4.4330221e-02   9.2250675e-02
 -6.6742951e-01   1.1966079e-01
  6.8292093e-01   9.6436657e-02
  4.1054454e-01   9.8031819e-02
  7.2260368e-01   1.1690436e-01
 -1.6506258e+00   9.6746780e-02
  8.7095767e-01   1.0799430e-01
 -1.3888024e-01   8.3234333e-02
 -3.3476114e-01   1.0645720e-01
 -8.3017385e-01   1.1639874e-01
 -5.0369543e-01   8.5312724e-02
  2.4244972e-01   6.9594555e-02
  5.8165431e-01   7.9906791e-02
  4.8651019e-01   1.1719047e-01
 -1.1426797e-03   1.1977365e-01
 -8.0857523e-02   8.4320508e-02
  7.1650714e-01   1.0740422e-01
  1.3058628e-01   9.6599519e-02
 -1.1217779e-01   8.4777132e-02
  7.4429256e-01   8.3273478e-02
  2.8997624e-01   1.0676102e-01
  7.7896947e-01   9.9689037e-02
 -1.4421381e+00   1.1843169e-01
  1.0660176e+00   1.0391136e-01
 -1.3036191e+00   1.0023186e-01
 -7.5753760e-01   9.3852825e-02
  1.1095127e+00   1.2123432e-01
  1.9696414e-01   1.0671400e-01
  7.5437471e-02   9.3054377e-02
  5.2147955e-01   9.3076020e-02
  7.8681427e-01   6.1094813e-02
  1.9065700e-01   1.0497471e-01
  1.0283146e-01   1.0814492e-01
  1.2421471e+00   9.5555864e-02
 -7.7028388e-01   1.0389730e-01
 -4.4027379e-01   8.7825328e-02
 -5.6176755e-04   8.6113662e-02
  1.3219543e+00   1.2517889e-01
 -2.8318698e-02   8.3069548e-02
 -5.0392276e-01   1.2162672e-01
 -5.0844944e-01   9.1039389e-02
  4.4023037e-01   8.8157021e-02
  1.6632177e-01   9.6040964e-02
  6.4768648e-01   7.9539366e-02
 -1.8254273e-01   8.2493789e-02
  4.5023665e-01   9.2482619e-02
 -2.5537943e-02   1.0049644e-01
  1.8582414e+00   1.0796209e-01
 -6.7742109e-02   1.2940353e-01
 -5.7427502e-01   9.8087497e-02
 -5.1120347e-01   6.8718456e-02
 -8.0774212e-01   1.2259124e-01
  3.4189907e-01   1.0722872e-01
 -5.0637949e-01   8.5593969e-02
  1.7795038e-01   8.0005020e-02
  4.5013174e-01   1.0842002e-01
 -1.2042458e+00   9.3822561e-02
  1.8673285e+00   1.3049753e-01
  1.9035938e-01   8.7389931e-02
 -3.1710404e-01   9.6350685e-02
 -1.1902288e+00   9.2053659e-02
  7.5906771e-01   1.1948695e-01
  6.1526918e-01   1.0641818e-01
 -1.3735836e+00   9.6473671e-02
 -1.3232127e+00   1.1219565e-01
  7.9767323e-01   1.1588582e-01
 -4.5870030e-01   9.5379055e-02
 -3.2000887e-01   8.7575458e-02
 -4.7567269e-01   1.0250659e-01
 -3.2678238e-01   1.1337281e-01
  2.5163111e-01   8.5066721e-02
 -5.9285522e-01   7.5480938e-02
  3.7106488e-02   1.5370785e-01
 -4.3049455e-01   7.7949807e-02
 -9.7643840e-01   9.4566435e-02
  2.5191495e-01   1.0638583e-01
  4.2699885e-01   7.6953061e-02
  1.9442602e+00   1.2137338e-01
  1.8977515e-01   8.5109860e-02
  1.6227558e+00   1.0243206e-01
  4.0147787e-01   8.2948886e-02
 -4.6172807e-01   8.9263722e-02
  2.2375329e-01   6.2742814e-02
 -5.8530235e-01   9.9514768e-02
 -8.8549393e-01   8.7770827e-02
  9.3623632e-01   8.6419664e-02
 -3.1780750e-01   1.0561625e-01
 -1.0408092e+00   1.2140767e-01
  6.9720417e-01   8.1056826e-02
  1.9453260e+00   1.0882243e-01
  7.0671633e-02   9.4722904e-02
  1.0293376e+00   1.0411490e-01
 -4.1518051e-02   9.9503487e-02
  1.2371069e+00   9.7612225e-02
 -8.3975047e-01   8.8420130e-02
 -6.6344136e-01   1.1458296e-01
  9.0571326e-01   7.1973130e-02
  5.0998336e-01   9.9717803e-02
 -3.8293320e-01   1.0893480e-01
 -2.4220023e-02   9.1175571e-02
 -4.4393560e-01   9.7299412e-02
 -2.5642455e-01   9.5819749e-02
  3.0345356e-01   8.3587542e-02
 -1.4374544e-02   1.1532387e-01
 -6.7422825e-01   9.2893794e-02
  5.7359493e-01   9.9538095e-02
 -1.2753574e+00   9.5318295e-02
  7.7806300e-01   1.4584014e-01
 -1.3144542e+00   9.1329858e-02
 -1.6002166e+00   1.3499358e-01
 -1.1158870e-01   1.1818969e-01
 -7.7046359e-01   1.2774676e-01
  3.7258670e-01   1.1567416e-01
  2.2256014e+00   8.4647037e-02
  9.5879292e-01   9.8534562e-02
  4.9725550e-01   1.2078112e-01
 -3.8818443e-01   9.8333947e-02
 -2.8031898e-01   7.0283867e-02
  1.1937132e+00   8.4131628e-02
 -9.6823700e-02   8.7777302e-02
 -7.7061236e-01   1.1134870e-01
 -2.6514021e-01   8.9902200e-02
  8.8303208e-01   1.0436864e-01
 -4.9622205e-01   9.8559000e-02
 -1.9925660e-01   1.0919644e-01
 -7.9298598e-01   1.0989839e-01
  2.7022666e-01   8.4978387e-02
 -8.4080607e-01   9.1988020e-02
  5.3873450e-01   8.2926974e-02
 -3.5185051e-01   1.0332126e-01
 -1.1510851e+00   8.4673718e-02
  1.1855461e-01   9.4504043e-02
 -6.4819837e-01   1.2615861e-01
  2.2875457e-01   1.0712589e-01
  1.3336270e-01   7.3833555e-02
  4.7727045e-01   1.1876772e-01
 -2.1209079e-01   1.0012516e-01
  5.2737813e-02   1.1967491e-01
 -6.4101565e-01   9.7735554e-02
  4.3031737e-01   8.7113626e-02
  3.8316205e-01   6.8265833e-02
  8.3047128e-01   1.0108345e-01
  1.1928787e+00   8.1277736e-02
  2.8948560e-01   9.4421655e-02
 -1.2984285e+00   7.7627987e-02
  7.9295075e-01   1.2700498e-01
  1.4132790e-01   1.0731947e-01
 -6.9980614e-02   7.9296395e-02
  1.2311720e+00   9.7165197e-02
  3.5375282e-02   9.7383074e-02
  2.5277812e-02   1.0646329e-01
 -3.1159583e-01   9.6852362e-02
 -4.4183618e-01   9.7464807e-02
  5.5504538e-02   1.2613046e-01
  1.1321553e+00   1.3386481e-01
 -5.1953912e-01   1.0334476e-01
  8.5886043e-01   1.3980404e-01
  6.3888520e-01   1.2103114e-01
 -4.1213015e-01   8.0803551e-02
  1.6571116e-01   1.1869341e-01
  1.0215667e+00   1.1298265e-01
 -4.8406065e-01   7.7331699e-02
 -3.5365823e-01   8.7071896e-02
  6.7073691e-01   1.0045140e-01
 -2.9363993e-01   8.0461264e-02
 -6.2589335e-01   1.1271933e-01
  1.6950722e+00   7.4053906e-02
 -1.8960316e-01   9.9144816e-02
 -2.3071836e-01   8.0799922e-02
  1.2475792e+00   9.1772012e-02
 -6.1924279e-01   9.8816037e-02
  7.5930434e-01   1.0330968e-01
  1.2896644e-01   9.7564593e-02
  2.0781332e-01   1.2499137e-01
  2.4774922e-01   7.2837852e-02
 -5.2573436e-01   7.5531751e-02
 -3.2875633e-01   1.2978448e-01
  1.0687540e-01   1.0364988e-01
 -2.6392514e-01   1.0506980e-01
  2.9302499e-01   1.0378852e-01
 -9.9324507e-01   1.0910597e-01
 -1.6591650e-01   1.2549084e-01
 -1.7878027e+00   1.2014103e-01
  4.7748253e-02   7.2197996e-02
 -9.6443921e-01   8.5207537e-02
  3.5191439e-02   6.9508173e-02
 -3.1728178e-02   1.1077768e-01
  6.6510648e-01   1.1335534e-01
 -4.7603211e-01   1.0555954e-01
  6.9312155e-01   1.2266447e-01
 -3.1860077e-01   8.9946195e-02
  1.5825477e+00   1.2352785e-01
 -2.4865083e-01   1.0667833e-01
  6.5233417e-02   9.6718617e-02
  1.2004490e+00   8.6660296e-02
 -1.0116777e+00   1.0129486e-01
 -2.8492820e-01   1.0304873e-01
 -6.9499063e-01   1.0597851e-01
 -1.3496252e+00   1.0154082e-01
  8.5665852e-01   1.0729797e-01
 -1.9061950e-01   1.0756514e-01
 -1.0081083e-01   8.1827663e-02
  1.0182442e-01   1.2259626e-01
  6.0556936e-01   9.6868768e-02
  7.5973943e-02   1.0202609e-01
  8.1824917e-01   9.9136293e-02
 -1.3628747e+00   7.7473290e-02
  2.2801377e-01   1.0668227e-01
  5.4962617e-01   1.3727544e-01
 -1.2051065e+00   8.2741685e-02
 -3.5515639e-01   7.5680017e-02
 -3.7326315e-01   1.0226952e-01
 -1.2173501e-01   1.1281303e-01
 -3.1466097e-02   1.0485256e-01
  6.7256087e-01   1.1510660e-01
 -2.1556100e-01   8.7602079e-02
 -1.0837574e+00   7.1958899e-02
  3.2607213e-01   1.1022083e-01
  3.5426104e-01   7.8961931e-02
  1.5948600e-01   9.7903177e-02
 -9.7997475e-01   1.0973563e-01
  2.1988207e-01   8.8601992e-02
  2.0174168e-03   1.0118540e-01
  7.4547172e-02   1.0570727e-01
  4.6551239e-01   9.8525271e-02
 -5.5179343e-02   7.5992018e-02
 -2.1759400e+00   1.5832984e-01
  9.7089577e-01   1.3063619e-01
  1.0149245e+00   1.1184536e-01
  7.8791207e-01   1.1196695e-01
 -1.6393956e+00   1.4190026e-01
 -1.0831403e+00   1.0234645e-01
 -1.0434275e+00   1.0004839e-01
  4.8204035e-01   1.3263014e-01
  5.8489885e-02   1.1341856e-01
  1.0502802e+00   1.0410493e-01
  1.4265735e-01   1.0138326e-01
  7.4492455e-01   1.0958003e-01
 -7.1899909e-01   1.0439036e-01
  2.1424678e-01   1.2465091e-01
 -1.5766295e-02   8.7460220e-02
  3.2500696e-01   7.8456424e-02
 -1.1064682e-01   1.0220819e-01
  3.7206036e-01   9.2231423e-02
 -8.1289750e-01   1.0172734e-01
 -5.4176670e-01   9.2128970e-02
 -1.1421870e+00   8.5300088e-02
  3.6407506e-01   1.1673339e-01
  1.9968803e-01   9.5566824e-02
 -1.0272330e+00   1.0854204e-01
 -7.1592140e-01   1.4007409e-01
  6.4423871e-01   1.4173974e-01
 -2.3521518e-02   8.7875977e-02
 -1.0230523e+00   7.5012580e-02
  5.1691622e-01   8.2967140e-02
 -1.7112417e+00   7.6405570e-02
 -7.5756878e-02   8.9475304e-02
  1.9149550e+00   9.6440323e-02
 -4.0444002e-02   8.3362140e-02
 -2.5136209e-01   1.0926481e-01
 -4.2126662e-01   7.9048507e-02
  5.0416750e-01   9.2304245e-02
  1.7122231e-01   1.0742848e-01
 -3.2444996e-01   1.1506470e-01
  1.1223010e+00   9.9926889e-02
 -1.7499511e-01   1.2098203e-01
 -6.1634876e-02   1.2982868e-01
  6.8552798e-01   9.8962866e-02
  4.7814107e-01   9.1494247e-02
  1.5182565e+00   1.0614464e-01
  3.0088839e-01   1.2800898e-01
 -2.0927979e-02   9.2637837e-02
 -4.8171631e-01   1.0963558e-01
 -5.7759768e-01   9.9474713e-02
 -3.8976574e-01   1.2239131e-01
 -8.0571121e-01   1.0742220e-01
 -7.3701918e-02   1.0558348e-01
  1.3568477e-01   1.1424156e-01
  3.4752849e-01   1.1870570e-01
 -4.8211053e-01   9.1086030e-02
  6.6744888e-01   9.9711224e-02
  4.1694549e-01   1.0493264e-01
  6.4687294e-01   1.0790945e-01
  1.1397029e+00   1.1035669e-01
  7.3763478e-01   1.1417424e-01
  5.0588572e-01   9.3147367e-02
  3.6162955e-01   1.3889188e-01
  9.9062991e-01   9.1759190e-02
  1.8854763e-01   9.8191462e-02
 -7.7871144e-02   1.6545135e-01
 -1.1082020e-01   1.4719701e-01
  4.5778579e-01   7.2306566e-02
 -7.0159620e-01   1.3088460e-01
  3.9357898e-01   9.3142904e-02
 -1.0425667e+00   9.9665716e-02
 -4.9620885e-01   1.2509893e-01
  1.2454292e+00   1.0042362e-01
 -6.8143791e-01   8.6728580e-02
  9.8398292e-01   8.4170930e-02
 -2.2559310e-01   1.1274675e-01
 -1.2205455e-01   1.2224626e-01
  3.3110797e-01   8.5215792e-02
 -7.5081062e-01   1.2928878e-01
  1.9252828e-01   9.0692081e-02
 -1.4191106e-01   9.3244612e-02
  1.1424072e+00   1.7157303e-01
  1.1770934e+00   8.3105773e-02
 -6.1678648e-01   1.1978763e-01
  1.1144716e+00   1.0293339e-01
 -8.3414209e-01   6.4898871e-02
  3.0059060e-01   9.9432088e-02
  6.8690383e-01   1.2768018e-01
 -1.9519480e+00   9.7428970e-02
  1.1264724e+00   9.9399075e-02
  9.0652907e-01   1.1262673e-01
 -1.7411580e+00   1.2423473e-01
  3.8067707e-01   9.1483407e-02
  6.8519902e-01   1.1849049e-01
  7.4548382e-01   9.6794359e-02
  1.3281435e+00   1.0012297e-01
 -2.3740654e-01   1.0468148e-01
  9.5017582e-01   9.7647883e-02
 -1.1524535e+00   1.1865629e-01
  2.7691880e-01   7.0716575e-02
 -3.2423954e-02   9.4427973e-02
 -6.5097886e-01   9.1089673e-02
 -3.5597569e-01   9.6899249e-02
 -4.3820128e-01   9.9788114e-02
 -1.0329535e+00   8.9171343e-02
 -1.2363095e-01   7.6959684e-02
  2.3539765e-02   8.3835721e-02
  7.1813947e-01   1.0483606e-01
  1.9756776e-01   9.1729403e-02
 -6.3744098e-01   8.2823209e-02
  2.8959315e-02   1.0333058e-01
  1.4873108e+00   1.1533460e-01
 -7.1430880e-01   1.1164905e-01
  6.3985318e-01   9.4708040e-02
  7.0659769e-01   8.6838812e-02
 -2.6819357e-01   9.6126258e-02
 -2.6402625e-01   1.0360757e-01
  4.4862616e-01   9.5458165e-02
 -7.0822656e-01   1.0310861e-01
  7.4100894e-01   8.9658640e-02
  4.6834361e-02   1.0125908e-01
 -4.8347804e-01   1.0291947e-01
  3.0487421e-01   1.1214997e-01
 -3.1290737e-01   1.1375001e-01
  3.3719692e-01   8.0952495e-02
 -3.3340892e-01   1.0195119e-01
 -3.9478365e-01   1.1058918e-01
  6.4244974e-01   1.0969684e-01
 -5.1856506e-01   8.0302835e-02
 -1.4121653e-01   9.6506998e-02
  4.9198297e-01   8.3494119e-02
 -7.9580510e-01   1.2127578e-01
 -7.1545285e-01   8.8352233e-02
  3.0819106e-01   1.0043276e-01
 -4.9630162e-01   6.8750940e-02
 -1.3009365e-01   1.0019051e-01
  1.0438659e+00   1.2000861e-01
  1.3023864e+00   1.0952606e-01
 -5.5473059e-01   1.2964864e-01
  1.3324729e-01   6.1835717e-02
 -4.8742592e-01   6.1855614e-02
 -9.9055451e-01   8.3808519e-02
 -7.5192565e-01   8.1428669e-02
 -1.8889183e-01   1.0185176e-01
 -5.0362878e-02   9.9814512e-02
 -1.5283443e-01   7.5588539e-02
 -1.0769213e+00   1.1085063e-01
  7.2356212e-01   1.0649644e-01
  1.1206448e+00   1.1748211e-01
 -6.4469862e-01   9.1169894e-02
  1.4579555e-01   1.1770993e-01
  1.7114630e-01   1.0309824e-01
  1.4893684e+00   1.0397111e-01
 -9.5408343e-02   8.5171349e-02
  1.2530789e+00   1.1123661e-01
  5.9561771e-01   1.1079712e-01
 -5.8324468e-01   1.2538722e-01
 -7.8720254e-01   1.0873841e-01
  9.2308849e-02   1.1812515e-01
  9.8687810e-01   7.0420519e-02
  4.8503762e-01   7.9280913e-02
 -9.6913233e-02   1.1489374e-01
  1.2419785e+00   9.5796950e-02
 -1.9018316e-01   7.2909996e-02
 -2.4612397e-02   1.1371107e-01
 -1.6641632e+00   1.1521550e-01
  2.2082450e+00   9.2209175e-02
  1.0968713e+00   8.4626004e-02
 -1.6226183e+00   1.0715679e-01
 -1.0804554e+00   9.6870899e-02
 -4.7157079e-01   9.3712680e-02
  6.4577162e-01   1.3771933e-01
  7.3666084e-01   9.5160253e-02
  1.1815177e-01   1.1170137e-01
 -1.3227652e+00   7.7101305e-02
  1.6781703e-01   7.1451254e-02
  1.6973020e+00   8.5718125e-02
  3.1216574e-01   8.3319068e-02
 -2.4411647e-01   9.2230648e-02
 -5.6833968e-02   1.1484778e-01
  3.8221266e-02   1.1371870e-01
 -1.6236876e+00   7.5318769e-02
  2.0776829e-01   9.8556377e-02
  7.3130363e-01   1.0181189e-01
 -6.6954678e-01   9.0590470e-02
 -4.8036805e-01   9.8116696e-02
 -1.1269619e-01   1.1500869e-01
  1.6612598e+00   1.2171648e-01
 -1.3713056e+00   1.0482984e-01
 -3.7274349e-01   8.5318863e-02
  5.5625793e-02   8.6855285e-02
 -4.2364679e-02   1.0870434e-01
 -2.3365165e-01   1.1987057e-01
 -3.9035404e-01   9.3088098e-02
  3.5353568e-01   1.2133460e-01
 -1.3419503e+00   1.0820232e-01
 -2.6505378e-01   1.1506993e-01
  8.3738756e-01   1.0897958e-01
  4.8453271e-01   9.1501601e-02
 -6.8830740e-01   9.3028069e-02
 -1.6883684e+00   7.4753635e-02
  9.3765207e-02   1.1675899e-01
 -8.1992757e-01   8.2303673e-02
  3.7787482e-01   1.0820009e-01
  1.0567486e+00   9.6020430e-02
 -9.0479350e-01   9.2220321e-02
 -3.1159952e-01   8.9954227e-02
 -1.0733424e+00   9.5280789e-02
  3.0348283e-01   1.3402484e-01
 -5.8207428e-01   9.4214648e-02
 -5.6337070e-02   9.8125495e-02
 -3.4312561e-01   1.4022583e-01
  2.1419260e-01   9.0063073e-02
  1.5210003e-02   1.5543221e-01
 -1.2960380e+00   1.2094712e-01
  5.8349067e-01   1.0493017e-01
 -8.3967990e-01   1.1491454e-01
  1.3351174e-01   9.1595948e-02
 -7.4572690e-02   9.0560898e-02
 -3.5127905e-01   8.6802244e-02
  5.5274963e-01   7.4848264e-02
 -2.3766537e-01   1.2533681e-01
  1.9661152e-01   6.2555388e-02
  1.0368487e+00   8.7397695e-02
  6.1433036e-02   8.1812426e-02
  1.2711846e+00   9.1705650e-02
 -3.2917035e-01   1.1693093e-01
 -1.7431892e-01   9.3467772e-02
 -1.2017704e+00   1.1692876e-01
 -2.8888488e-01   6.3280210e-02
 -4.4217792e-01   1.2030828e-01
 -6.1091548e-01   9.5311180e-02
  3.5959536e-01   1.2185063e-01
  3.0711836e-01   1.0165516e-01
  1.5154523e+00   1.0140103e-01
  2.0740165e-01   8.4912404e-02
 -1.0732268e+00   1.1027448e-01
 -4.9406919e-01   9.9912465e-02
  4.2624110e-01   8.7602794e-02
 -3.7189072e-01   9.3536057e-02
  3.7039682e-02   9.8010607e-02
  9.5976365e-01   1.0620610e-01
 -6.6707796e-01   1.2097020e-01
 -2.5653753e-01   7.6157890e-02
 -1.3526816e+00   8.1512935e-02
  2.2612911e-01   1.4569817e-01
  2.4357370e-01   8.8903412e-02
 -1.3637457e+00   7.5917773e-02
 -5.1104546e-01   8.9682169e-02
  1.2193177e+00   9.6422985e-02
  3.9007413e-01   1.3331777e-01
 -5.1635748e-01   1.2374593e-01
  1.7893696e+00   1.0923875e-01
 -1.7451392e-01   1.0982492e-01
 -3.7913358e-01   8.8289008e-02
  3.4324089e-01   7.6627336e-02
 -1.2884893e+00   8.7221824e-02
 -7.7097017e-01   1.0751299e-01
  1.5476985e+00   7.9294741e-02
 -3.1140652e-01   1.0947727e-01
  3.6032590e-01   9.8388642e-02
 -8.5190755e-01   8.3353527e-02
  6.7552018e-01   7.3773339e-02
  1.6791525e-01   1.3108401e-01
 -9.1334134e-01   9.4666310e-02
 -1.3671299e+00   1.1643060e-01
 -3.1723833e-01   1.0978618e-01
 -1.0836875e+00   9.3451016e-02
 -8.7056607e-01   1.3352491e-01
 -3.6996964e-01   6.6908211e-02
 -3.7669611e-01   9.7639203e-02
 -7.5011885e-01   8.2879789e-02
  1.9320327e-01   8.9730002e-02
 -2.5386241e-01   1.1923956e-01
 -1.7422165e-01   1.0132753e-01
  1.1884884e+00   7.9365067e-02
  1.1103872e+00   1.1159220e-01
 -1.2828285e+00   1.3202971e-01
 -1.9922130e+00   1.1949540e-01
 -4.6576190e-01   9.6192382e-02
 -4.8849693e-01   1.2719004e-01
  3.9720485e-01   1.0463654e-01
  2.2342214e-01   1.0178848e-01
 -1.2032681e+00   7.4356809e-02
  2.5987229e-03   9.0213694e-02
 -5.4755390e-01   8.8691831e-02
  8.6826503e-01   1.1318010e-01
  3.8297527e-02   9.2535302e-02
 -3.2419351e-01   1.0128121e-01
 -6.5775895e-01   1.2596159e-01
 -1.0516479e+00   9.0513267e-02
  4.0228777e-02   1.1819782e-01
 -6.5161395e-01   1.2146941e-01
 -9.3638933e-01   1.0449331e-01
 -1.8757668e+00   1.0324412e-01
 -1.3520958e+00   9.2694119e-02
 -1.1231047e+00   9.5104799e-02
  8.2443696e-01   1.2562516e-01
 -6.9657177e-01   1.1023136e-01
 -5.3856456e-01   1.1422862e-01
 -7.8014565e-01   9.3727045e-02
  6.0709375e-01   9.4676837e-02
 -8.5585988e-01   1.1832962e-01
 -6.2946177e-01   1.1510754e-01
  2.6179820e-01   1.0136003e-01
 -9.4598120e-01   9.0478562e-02
 -1.0118973e-01   1.4838263e-01
  1.1551516e+00   1.2002643e-01
 -5.9535712e-01   9.6559584e-02
 -5.2087528e-01   6.6082723e-02
  5.9445679e-01   8.8977881e-02
  2.7441156e-01   1.0014299e-01
 -6.9672519e-01   8.8832572e-02
  9.8727274e-01   1.0214400e-01
 -7.0242971e-01   1.2382706e-01
  7.4859202e-01   9.3040578e-02
 -6.1021483e-01   9.8495670e-02
 -1.2939092e+00   9.6920647e-02
  1.8394901e-01   8.4329963e-02
 -2.2203453e-01   1.0280804e-01
 -3.5569450e-01   1.1976450e-01
  1.0189123e+00   9.5519707e-02
 -6.6499639e-01   1.0452163e-01
 -1.3787946e-01   9.5530927e-02
  7.9301667e-01   1.0623920e-01
  9.0764594e-01   9.1776364e-02
 -1.3479124e-01   1.0176301e-01
 -1.5519525e-01   1.2054600e-01
 -2.1261697e-01   1.0300942e-01
  6.1082713e-02   9.5380403e-02
 -1.5218563e-03   9.1288671e-02
  9.6883126e-02   7.6582372e-02
 -1.6840311e+00   1.0676439e-01
 -1.6107605e-01   9.9317104e-02
 -1.2354956e+00   8.8683218e-02
 -7.8313100e-01   1.1884163e-01
 -4.0145889e-02   9.1649115e-02
  1.1514589e+00   1.0331057e-01
 -2.5788730e-01   1.0271218e-01
  1.2145988e-01   9.8112360e-02
 -5.1474380e-01   1.0997223e-01
 -1.1565833e+00   1.2517236e-01
  3.1668329e-01   9.9641562e-02
  2.3872918e-01   1.1146857e-01
  1.4426135e-02   1.0978249e-01
  4.1387558e-01   9.6608609e-02
  2.4332631e-01   1.1723731e-01
  5.8714569e-01   1.1843941e-01
  5.2474821e-01   1.2713505e-01
 -9.0839535e-01   1.0839389e-01
  5.7620013e-01   1.2575912e-01
 -2.7873209e-01   1.1676113e-01
 -4.4576541e-01   1.0044635e-01
  5.5323923e-01   1.3926606e-01
  4.0730637e-01   8.4470399e-02
  1.6200958e-01   8.9243397e-02
 -1.2805437e-01   1.0183924e-01
 -9.8633260e-02   1.0313153e-01
 -2.6165766e-01   1.0072326e-01
 -1.1074094e+00   8.0702156e-02
 -9.1610983e-02   1.2324502e-01
  1.2731616e+00   9.1555953e-02
 -9.1107473e-02   1.0137129e-01
 -1.1387415e-01   8.6099170e-02
  1.6956466e-01   7.5152911e-02
  6.5701580e-01   1.0814546e-01
 -5.6039429e-01   1.2129465e-01
 -7.6762366e-01   1.0099827e-01
  4.2689902e-01   9.9509068e-02
 -1.5700079e+00   1.0964368e-01
 -9.5230281e-01   9.0236641e-02
 -8.0247146e-01   9.3091108e-02
 -1.1306118e+00   1.2341501e-01
 -1.7521942e-01   1.2873995e-01
  6.6541910e-01   7.3814653e-02
 -1.6462676e-01   9.4108380e-02
 -8.9970511e-01   1.2419682e-01
  2.5419381e-01   1.0110942e-01
  1.2029910e+00   9.5587216e-02
 -5.6601834e-01   1.0195570e-01
  2.2871254e-01   1.1542453e-01
  7.0821923e-01   1.1221173e-01
  1.3047016e+00   7.7460103e-02
 -4.4502410e-01   9.5003873e-02
 -9.1028708e-01   8.8561341e-02
 -5.1859772e-01   8.3914794e-02
 -1.2457248e+00   1.1505711e-01
  6.0555029e-01   1.2824517e-01
 -7.7267909e-01   7.0340902e-02
 -2.1436679e+00   8.0975309e-02
 -6.2739849e-01   1.0572983e-01
 -6.6264886e-01   1.0115376e-01
  7.9801880e-02   9.0917371e-02
  4.0444680e-02   1.5052605e-01
  3.3943239e-01   9.2378139e-02
  9.4844997e-01   1.0479627e-01
  2.2812400e-02   9.2756614e-02
  1.3717814e-01   9.8718069e-02
 -1.1552156e+00   1.2470994e-01
 -1.1938032e-02   9.5450871e-02
 -1.9801448e-01   1.0394340e-01
 -6.3192695e-01   9.5527433e-02
  4.3324995e-01   1.0623123e-01
  1.0518560e+00   1.0077800e-01
  1.2953030e+00   1.2142327e-01
 -6.6737676e-01   1.1783045e-01
  9.7557116e-01   1.3450475e-01
 -7.9272646e-01   8.8175707e-02
 -7.0766911e-02   7.3373951e-02
  4.8444316e-01   8.5887700e-02
 -2.8885758e-01   9.4033964e-02
  1.5892905e-01   1.0757264e-01
  3.9695746e-01   1.0785614e-01
  1.2985130e-01   9.0654857e-02
 -1.0215511e+00   1.0993829e-01
 -1.1959320e+00   1.1089954e-01
  2.1142490e-01   1.1338194e-01
 -1.1622726e+00   1.2348734e-01
  7.6085500e-02   1.1159717e-01
 -1.9155376e-01   8.4762640e-02
  7.9581404e-01   8.2858890e-02
  1.5172678e-01   1.0255054e-01
  3.9420274e-01   9.5957428e-02
  8.2142860e-01   8.1234604e-02
 -5.0615430e-01   8.1996463e-02
  1.1357225e+00   9.7196475e-02
 -1.9777937e-01   1.1863075e-01
 -1.5834972e-01   7.7933639e-02
  3.1673434e-01   8.2250051e-02
  3.9569977e-01   8.4544957e-02
  9.3102992e-01   8.4762946e-02
 -2.1431053e-01   8.7236628e-02
 -1.2137377e+00   9.5837809e-02
 -1.3846680e+00   1.0181011e-01
  3.3131656e-01   8.8090360e-02
  1.0939611e-01   9.6382447e-02
  1.4430667e+00   9.4596058e-02
  1.7951888e-01   1.2480045e-01
 -2.8509945e-01   8.0203578e-02
  7.6431572e-01   9.1823645e-02
  8.5016537e-01   9.2955478e-02
  1.0233101e+00   9.4823174e-02
  1.2288922e-01   9.2636228e-02
 -5.8516103e-01   9.8875947e-02
  3.2533216e-01   1.2067747e-01
 -1.2950674e-01   9.9577405e-02
 -8.7164551e-01   8.2952209e-02
  5.8383916e-02   9.6059017e-02
  4.3031406e-01   6.7975543e-02
  3.8032676e-03   8.2725242e-02
  1.1452417e+00   8.1133887e-02
  6.2439191e-01   1.4839840e-01
  1.8086579e-01   9.4006643e-02
 -9.7010332e-01   9.8556533e-02
  3.3238503e-01   6.6771902e-02
  1.7973915e-01   7.8035519e-02
 -1.5295237e-01   9.0133540e-02
 -2.3267336e-01   9.7464845e-02
 -2.9236645e-01   9.4044775e-02
  1.0629153e+00   9.3457796e-02
 -4.9451357e-01   8.5576817e-02
 -7.7435263e-02   8.9022681e-02
 -3.7289307e-01   9.5490806e-02
  2.7090397e-01   9.0175107e-02
  5.0807208e-01   8.5154630e-02
 -1.2827908e-01   1.3023950e-01
 -1.1535888e+00   1.5821466e-01
  6.9184947e-01   1.1285152e-01
 -3.7304544e-01   9.5837496e-02
  4.2049345e-01   9.8544791e-02
 -4.5652366e-01   8.2767449e-02
 -1.6697781e-01   1.0629131e-01
  6.2209231e-01   8.9940123e-02
  9.3138285e-02   9.3884595e-02
 -2.4232028e-01   1.1077804e-01
 -1.0524395e+00   8.0090508e-02
 -6.9529429e-02   8.6762138e-02
  1.7661846e+00   1.2000090e-01
 -1.0543485e+00   1.0139382e-01
  3.1028157e-01   1.1985495e-01
  1.4560599e+00   1.0985906e-01
 -7.4016416e-01   1.2096339e-01
 -4.1364175e-01   9.4959885e-02
  4.6655709e-01   9.5469534e-02
 -7.1362334e-01   9.4807342e-02
  5.4868126e-01   1.2218049e-01
  1.0364792e+00   8.9526385e-02
 -4.8968312e-01   9.6217535e-02
  1.2906868e-03   7.6539867e-02
  6.1252981e-01   1.1112629e-01
 -8.3647239e-01   1.0718148e-01
 -1.0570024e+00   1.1169705e-01
 -4.5274344e-01   8.6130090e-02
  7.6863557e-01   1.2227684e-01
  1.6345878e-01   1.1314255e-01
 -4.7096750e-01   9.2035517e-02
 -6.0589377e-02   8.7414287e-02
 -1.0427599e+00   9.1768205e-02
 -2.3131650e-02   1.0327715e-01
 -8.5312039e-01   6.5075144e-02
 -6.5613322e-02   9.0065159e-02
  1.9218993e-01   1.0552657e-01
 -1.8157241e+00   1.1191631e-01
 -9.3037862e-01   1.1048958e-01
  1.2593712e-01   1.1896554e-01
 -1.6730855e-01   8.4720016e-02
  1.1548680e+00   8.6637571e-02
  1.2385298e+00   8.8970199e-02
  4.5474353e-01   1.0093925e-01
 -1.1448160e+00   1.3160014e-01
  2.1337925e-01   8.4824450e-02
  5.2359593e-01   1.0483505e-01
 -1.1500902e-02   1.1379964e-01
 -1.2487376e+00   1.1608310e-01
  1.8914814e-01   1.1353639e-01
  1.8102317e-01   1.0694174e-01
 -8.0699247e-01   8.0257691e-02
  5.5768127e-03   1.0131225e-01
  7.1416926e-01   1.0605590e-01
 -4.6019098e-01   6.9632553e-02
  2.6029104e-01   1.1754656e-01
 -4.8635331e-01   1.0501309e-01
  4.2963900e-02   7.3526070e-02
 -1.1409611e+00   1.1593085e-01
 -4.8772231e-02   1.0001078e-01
  5.8590025e-01   1.4530818e-01
 -9.6058303e-01   6.9873117e-02
  6.3568717e-01   1.0277122e-01
 -7.9768437e-01   1.0204005e-01
 -4.4244674e-01   9.4778828e-02
 -1.0087477e+00   1.0679699e-01
  4.9194939e-02   1.1154710e-01
 -7.4515289e-01   1.1163550e-01
 -4.6667808e-01   1.0928506e-01
 -1.9972046e-01   8.5515723e-02
  1.0427208e+00   7.8707814e-02
 -2.3335336e-01   1.3545224e-01
 -2.6748261e-01   1.1807912e-01
  1.1593380e-01   1.3260950e-01
  6.6843569e-01   1.2746094e-01
 -6.9192696e-01   1.2415118e-01
 -1.6527033e-01   1.2004810e-01
 -1.3180536e-01   8.0056481e-02
  1.5542663e+00   1.0936123e-01
 -2.7226937e-01   7.2250344e-02
 -1.2992079e+00   9.4485752e-02
 -4.4514993e-01   8.3001748e-02
 -5.5712426e-01   9.1044478e-02
 -1.0699677e-01   7.6716773e-02
 -1.3518934e+00   1.0884166e-01
  6.7804080e-01   1.3901830e-01
 -8.2064348e-01   1.1222557e-01
  1.3536304e-02   9.4148897e-02
 -6.0813415e-01   8.9177914e-02
 -4.8352146e-01   9.6717633e-02
  4.3120873e-01   8.5445963e-02
 -5.8024883e-01   8.4306806e-02
 -4.6051618e-01   8.0171280e-02
  3.6995985e-02   7.6941103e-02
 -7.3238772e-01   8.7501824e-02
 -2.4806546e-01   1.1471392e-01
  2.1912447e-01   1.1140548e-01
  9.3045974e-01   7.3392794e-02
 -3.3942410e-01   1.1804546e-01
  1.8953879e-01   1.0509770e-01
 -1.2874050e+00   1.0661593e-01
  1.0028136e+00   1.3711724e-01
 -7.8950423e-01   9.8354347e-02
 -1.2906560e-01   1.1193659e-01
  2.5218356e-01   9.5118716e-02
  4.8919395e-01   8.1341192e-02
  2.0855124e-01   1.1624485e-01
  2.1762234e-01   9.6586533e-02
 -7.5928450e-01   1.3706733e-01
  1.6545601e-01   1.2127064e-01
  7.1950680e-01   1.0238406e-01
 -5.1823276e-01   1.1133623e-01
 -1.1974927e+00   8.5882127e-02
 -9.3777144e-01   1.0407679e-01
 -1.0050999e-01   9.0232506e-02
 -1.3744144e-02   1.0465401e-01