4
Lattice="5.431 0.0 0.0 0.0 50.0 0.0 0.0 0.0 50.0" Properties=species:S:1:pos:R:3:forces:R:3 virial="-2.488083520956965 0.0 0.0 0.0 -2.1895822089504287 0.0 0.0 0.0 -2.1895822089504287" energy=-15.23566787 pbc="T T T"
Si       1.35775000       0.00000000       1.92014850       0.00000000       0.56532149      -0.56532149
Si       0.00000000       0.00000000       0.00000000      -0.00000000       0.56532149       0.56532149
Si       4.07325000       1.92014850       0.00000000      -0.00000000      -0.56532149       0.56532149
Si       2.71550000       1.92014850       1.92014850      -0.00000000      -0.56532149      -0.56532149
8
Lattice="5.55439039 0.0 0.0 0.0 49.59778057 0.0 0.0 0.0 47.75379741" Properties=species:S:1:pos:R:3:forces:R:3 virial="2.547666641428237 0.0 0.0 0.0 -1.6212835602315057 0.0 0.0 0.0 1.680000354544246" energy=-32.98538083 pbc="T T T"
Si       1.11248602       0.14534927       1.56102245       2.18009947       1.35916330       2.05341714
Si      -0.47606541      -0.14888758       0.12305867      -2.08348281      -0.63599895      -1.08855473
Si       4.64185820       2.05358966       0.12305867       2.08348281       0.63599895      -1.08855473
Si       3.05330677       1.75935281       1.56102245      -2.18009947      -1.35916330       2.05341714
Si       1.86466301      -0.14888758       5.37860666       2.08348281      -0.63599895       1.08855473
Si       0.27611158       0.14534927       3.94064336      -2.18009947       1.35916330      -2.05341714
Si       3.88968121       1.75935281       3.94064336       2.18009947      -1.35916330      -2.05341714
Si       2.30112978       2.05358966       5.37860666      -2.08348281       0.63599895       1.08855473
8
Lattice="5.49206351 0.0 0.0 0.0 49.33507439 0.0 0.0 0.0 48.48863519" Properties=species:S:1:pos:R:3:forces:R:3 virial="2.182319904971585 0.0 0.0 0.0 0.18704397280229734 0.0 0.0 0.0 1.9216621062052577" energy=-33.08906034 pbc="T T T"
Si       1.19405666       0.10649765       1.67833616       1.39970966       1.03510512       1.37812395
Si      -0.32561401      -0.09277214       0.08272258      -1.38615417      -0.87962028      -0.74848204
Si       4.44466164       1.98738552       0.08272258       1.38615417       0.87962028      -0.74848204
Si       2.92499097       1.78811573       1.67833616      -1.39970966      -1.03510512       1.37812395
Si       1.69862989      -0.09277214       5.50360314       1.38615417      -0.87962028       0.74848204
Si       0.17895922       0.10649765       3.90798956      -1.39970966       1.03510512      -1.37812395
Si       3.94008841       1.78811573       3.90798956       1.39970966      -1.03510512      -1.37812395
Si       2.42041774       1.98738552       5.50360314      -1.38615417       0.87962028       0.74848204
8
Lattice="5.64015979 0.0 0.0 0.0 49.82898652 0.0 0.0 0.0 47.53468062" Properties=species:S:1:pos:R:3:forces:R:3 virial="-4.657467448770234 0.0 0.0 0.0 -5.189777616589243 0.0 0.0 0.0 -3.051890788823275" energy=-33.71005497 pbc="T T T"
Si       1.09186071       0.19987901       1.52020995       1.30681342       1.22320609       1.41279700
Si      -0.62893072      -0.21287392       0.13466575      -1.20849473       0.31492039      -0.36663576
Si       4.85905056       2.12645499       0.13466575       1.20849473      -0.31492039      -0.36663576
Si       3.13825913       1.71370206       1.52020995      -1.30681342      -1.22320609       1.41279700
Si       2.03897067      -0.21287392       5.34175537       1.20849473       0.31492039       0.36663576
Si       0.31817924       0.19987901       3.95621165      -1.30681342       1.22320609      -1.41279700
Si       3.91194061       1.71370206       3.95621165       1.30681342      -1.22320609      -1.41279700
Si       2.19114917       2.12645499       5.34175537      -1.20849473      -0.31492039       0.36663576
8
Lattice="5.45888016 0.0 0.0 0.0 47.95193025 0.0 0.0 0.0 45.58542949" Properties=species:S:1:pos:R:3:forces:R:3 virial="-8.031596982340435 0.0 0.0 0.0 -3.5143883684711406 0.0 0.0 0.0 -2.105635821499272" energy=-35.08595137 pbc="T T T"
Si       1.03485323       0.32614793       1.45450934      -0.23373496       0.36182971       0.47797968
Si      -0.86450942      -0.25590027       0.14830034       0.14938924       0.56574132      -0.01639758
Si       4.95866954       2.09739681       0.14830034      -0.14938924      -0.56574132      -0.01639758
Si       3.05930689       1.51534861       1.45450934       0.23373496      -0.36182971       0.47797968
Si       2.22922946      -0.25590027       5.10355004      -0.14938924       0.56574132       0.01639758
Si       0.32986681       0.32614793       3.79734104       0.23373496       0.36182971      -0.47797968
Si       3.76429331       1.51534861       3.79734104      -0.23373496      -0.36182971      -0.47797968
Si       1.86493066       2.09739681       5.10355004       0.14938924      -0.56574132       0.01639758
8
Lattice="5.28041414 0.0 0.0 0.0 47.04992881 0.0 0.0 0.0 44.89283756" Properties=species:S:1:pos:R:3:forces:R:3 virial="-1.8930513908749924 0.0 0.0 0.0 -0.18716299171014406 0.0 0.0 0.0 1.0359286046748823" energy=-35.35167753 pbc="T T T"
Si       0.99558465       0.34729246       1.44270271      -0.63760486       0.00126961       0.41581607
Si      -0.86303564      -0.24015178       0.15123454       0.01322573       0.04246940      -0.30326295
Si       4.82334624       2.04700878       0.15123454      -0.01322573      -0.04246940      -0.30326295
Si       2.96472596       1.45956454       1.44270271       0.63760486      -0.00126961       0.41581607
Si       2.18313917      -0.24015178       5.02082303      -0.01322573       0.04246940       0.30326295
Si       0.32451889       0.34729246       3.72935486       0.63760486       0.00126961      -0.41581607
Si       3.63579172       1.45956454       3.72935486      -0.63760486      -0.00126961      -0.41581607
Si       1.77717143       2.04700878       5.02082303       0.01322573      -0.04246940       0.30326295
8
Lattice="4.94715775 0.0 0.0 0.0 47.01334822 0.0 0.0 0.0 46.82808461" Properties=species:S:1:pos:R:3:forces:R:3 virial="-0.5308448948344852 0.0 0.0 0.0 0.3337426526069408 0.0 0.0 0.0 1.8867378579364644" energy=-35.6169784 pbc="T T T"
Si       0.85624338       0.36320961       1.55654071       0.13317799      -0.17343922      -0.07432977
Si      -0.84043226      -0.25678597       0.09431691      -0.12031726       0.00715173      -0.15155165
Si       4.55080057       2.06223817       0.09431691       0.12031726      -0.00715173      -0.15155165
Si       2.85412493       1.44224259       1.55654071      -0.13317799       0.17343922      -0.07432977
Si       2.07722170      -0.25678597       5.30069848       0.12031726       0.00715173       0.15155165
Si       0.38054606       0.36320961       3.83847468      -0.13317799      -0.17343922       0.07432977
Si       3.32982225       1.44224259       3.83847468       0.13317799       0.17343922       0.07432977
Si       1.63314661       2.06223817       5.30069848      -0.12031726      -0.00715173       0.15155165
8
Lattice="4.69214764 0.0 0.0 0.0 47.82111535 0.0 0.0 0.0 47.21865369" Properties=species:S:1:pos:R:3:forces:R:3 virial="0.6822082788617001 0.0 0.0 0.0 -0.5165598859864604 0.0 0.0 0.0 4.885305167149989" energy=-35.6595918 pbc="T T T"
Si       0.79685641       0.33678355       1.58937374       0.26706391      -0.26659692      -0.32811978
Si      -0.79810330      -0.28025947       0.07784845      -0.53433034       0.23191104      -0.32546558
Si       4.31721403       2.11673233       0.07784845       0.53433034      -0.23191104      -0.32546558
Si       2.72225432       1.49968883       1.58937374      -0.26706391       0.26659692      -0.32811978
Si       1.97114021      -0.28025947       5.36216401       0.53433034       0.23191104       0.32546558
Si       0.37618050       0.33678355       3.85063871      -0.26706391      -0.26659692       0.32811978
Si       3.14293023       1.49968883       3.85063871       0.26706391       0.26659692       0.32811978
Si       1.54797052       2.11673233       5.36216401      -0.53433034      -0.23191104       0.32546558
8
Lattice="3.95390418 0.0 0.0 0.0 49.34262702 0.0 0.0 0.0 51.48541252" Properties=species:S:1:pos:R:3:forces:R:3 virial="0.2004682830919028 0.0 0.0 0.0 -1.1859398298045039 0.0 0.0 0.0 -7.992026983179182" energy=-36.30494653 pbc="T T T"
Si       0.65704189       0.15409061       1.74403334       0.42685214      -0.31413465      -0.20087601
Si      -0.81030079      -0.27065270      -0.00040313      -0.73908097       0.44222474       0.75447655
Si       3.77572892       2.16555612      -0.00040313       0.73908097      -0.44222474       0.75447655
Si       2.30838625       1.74081282       1.74403334      -0.42685214       0.31413465      -0.20087601
Si       1.79877683      -0.27065270       5.93198448       0.73908097       0.44222474      -0.75447655
Si       0.33143416       0.15409061       4.18754801      -0.42685214      -0.31413465       0.20087601
Si       2.63399398       1.74081282       4.18754801       0.42685214       0.31413465       0.20087601
Si       1.16665130       2.16555612       5.93198448      -0.73908097      -0.44222474      -0.75447655
8
Lattice="3.84489667 0.0 0.0 0.0 48.97339191 0.0 0.0 0.0 50.27396877" Properties=species:S:1:pos:R:3:forces:R:3 virial="1.9328856555252227 0.0 0.0 0.0 0.45051839770218577 0.0 0.0 0.0 -5.373572025869372" energy=-36.95487463 pbc="T T T"
Si       0.65826711       0.08600119       1.68661423       0.75678285      -0.23305429      -0.08266367
Si      -0.87457661      -0.22591279       0.01836257      -0.90721092       0.07220983       0.49784488
Si       3.75824912       2.10663649       0.01836257       0.90721092      -0.07220983       0.49784488
Si       2.22540539       1.79472202       1.68661423      -0.75678285       0.23305429      -0.08266367
Si       1.83580078      -0.22591279       5.77364959       0.90721092       0.07220983      -0.49784488
Si       0.30295706       0.08600119       4.10539793      -0.75678285      -0.23305429       0.08266367
Si       2.58071545       1.79472202       4.10539793       0.75678285       0.23305429       0.08266367
Si       1.04787172       2.10663649       5.77364959      -0.90721092      -0.07220983      -0.49784488
8
Lattice="3.68138541 0.0 0.0 0.0 48.41953926 0.0 0.0 0.0 48.45680314" Properties=species:S:1:pos:R:3:forces:R:3 virial="7.094657671753554 0.0 0.0 0.0 2.3632255077933806 0.0 0.0 0.0 -0.13567079147333838" energy=-37.48324283 pbc="T T T"
Si       0.65868839      -0.01484834       1.60150267       0.95997705      -0.06245218       0.22129933
Si      -0.96464601      -0.15962179       0.04534733      -0.87383782      -0.49480645      -0.08647059
Si       0.04429966       2.01907590       0.04534733       0.87383782       0.49480645      -0.08647059
Si       2.10235067       1.87430245       1.60150267      -0.95997705       0.06245218       0.22129933
Si       1.88499236      -0.15962179       5.53731105       0.87383782      -0.49480645       0.08647059
Si       0.26165797      -0.01484834       3.98115571      -0.95997705      -0.06245218      -0.22129933
Si       2.49938109       1.87430245       3.98115571       0.95997705       0.06245218      -0.22129933
Si       0.87604670       2.01907590       5.53731105      -0.87383782       0.49480645       0.08647059
12
Lattice="5.58403645 0.0 0.0 0.0 46.66528182 0.0 0.0 0.0 48.00554336" Properties=species:S:1:pos:R:3:forces:R:3 virial="-7.117728478000539 0.0 0.0 0.0 -4.361948876256384 0.0 0.0 0.0 -1.813407034761691" energy=-53.1463749 pbc="T T T"
Si       0.96931898       0.46236381       1.54797571       0.18490293       0.23583759      -0.14819620
Si      -0.82295781      -0.32349167       0.20817844       0.09327590       0.87581917       0.18238156
Si       5.01098515       2.11557708       0.20817844      -0.09327590      -0.87581917       0.18238156
Si       3.21870835       1.32972161       1.54797571      -0.18490293      -0.23583759      -0.14819620
Si       1.38458596       0.05575008       5.58294724      -0.90823685      -0.09185870      -0.07662531
Si       0.01142315       0.05575008       3.63483573       0.90823685      -0.09185870       0.07662531
Si       4.17660419       1.73633534       3.63483573      -0.90823685       0.09185870       0.07662531
Si       2.80344138       1.73633534       5.58294724       0.90823685       0.09185870      -0.07662531
Si       2.21896693      -0.32349167       9.00960453      -0.09327590       0.87581917      -0.18238156
Si       0.42669013       0.46236381       7.66980726      -0.18490293       0.23583759       0.14819620
Si       3.76133721       1.32972161       7.66980726       0.18490293      -0.23583759       0.14819620
Si       1.96906041       2.11557708       9.00960453       0.09327590      -0.87581917      -0.18238156
12
Lattice="5.43427113 0.0 0.0 0.0 43.50381768 0.0 0.0 0.0 50.36288015" Properties=species:S:1:pos:R:3:forces:R:3 virial="4.0978256984398405 0.0 0.0 0.0 -2.2125117680419084 0.0 0.0 0.0 -1.1500229703960523" energy=-54.01278052 pbc="T T T"
Si       0.93271455       0.48473911       1.51453671       0.33071142       0.33991428      -0.16191038
Si      -0.79314127      -0.37867768       0.27599916      -0.38705706       0.23673550       0.06716512
Si       4.86884462       2.04935348       0.27599916       0.38705706      -0.23673550       0.06716512
Si       3.14298880       1.18593669       1.51453671      -0.33071142      -0.33991428      -0.16191038
Si       1.03893912       0.33533439       5.95488932       0.08909693       0.29591234      -0.45440814
Si       0.31962867       0.33533439       3.71553760      -0.08909693       0.29591234       0.45440814
Si       3.75607468       1.33534142       3.71553760       0.08909693      -0.29591234       0.45440814
Si       3.03676423       1.33534142       5.95488932      -0.08909693      -0.29591234      -0.45440814
Si       2.15170906      -0.37867768       9.39442726       0.38705706       0.23673550      -0.06716512
Si       0.42585323       0.48473911       8.15589022      -0.33071142       0.33991428       0.16191038
Si       3.64985011       1.18593669       8.15589022       0.33071142      -0.33991428       0.16191038
Si       1.92399429       2.04935348       9.39442726      -0.38705706      -0.23673550      -0.06716512
12
Lattice="5.61229499 0.0 0.0 0.0 41.73912677 0.0 0.0 0.0 49.93504292" Properties=species:S:1:pos:R:3:forces:R:3 virial="0.9484867406938441 0.0 0.0 0.0 0.4460808269707444 0.0 0.0 0.0 -1.5160251592974912" energy=-54.36563046 pbc="T T T"
Si       0.98787033       0.50988726       1.46078327      -0.24263836       0.08010302       0.16745812
Si      -0.84489532      -0.38189005       0.30186283       0.05408943      -0.17579597       0.04021822
Si       5.05411656       1.98479649       0.30186283      -0.05408943       0.17579597       0.04021822
Si       3.22135092       1.09301917       1.46078327       0.24263836      -0.08010302       0.16745812
Si       1.02133493       0.49073651       5.89114461       0.39142144       0.24837143       0.31965926
Si       0.38173882       0.49073651       3.69713116      -0.39142144       0.24837143      -0.31965926
Si       3.82748242       1.11216950       3.69713116       0.39142144      -0.24837143      -0.31965926
Si       3.18788632       1.11216950       5.89114461      -0.39142144      -0.24837143       0.31965926
Si       2.24796906      -0.38189005       9.28641294      -0.05408943      -0.17579597      -0.04021822
Si       0.41520342       0.50988726       8.12749250       0.24263836       0.08010302      -0.16745812
Si       3.79401782       1.09301917       8.12749250      -0.24263836      -0.08010302      -0.16745812
Si       1.96125218       1.98479649       9.28641294       0.05408943       0.17579597      -0.04021822
12
Lattice="5.73033066 0.0 0.0 0.0 40.7231518 0.0 0.0 0.0 49.43303982" Properties=species:S:1:pos:R:3:forces:R:3 virial="0.664249345041508 0.0 0.0 0.0 -0.13304727656157378 0.0 0.0 0.0 0.9923641991361881" energy=-54.58682243 pbc="T T T"
Si       0.99064747       0.63493339       1.43891571       0.03112750       0.17941214      -0.13612014
Si      -0.77318228      -0.42692564       0.31276779      -0.11902677      -0.00341743      -0.01396186
Si       5.07093028       1.99081562       0.31276779       0.11902677       0.00341743      -0.01396186
Si       3.30710052       0.92895658       1.43891571      -0.03112750      -0.17941214      -0.13612014
Si       1.03481732       0.67067732       5.86033581       0.23289731       0.06133649      -0.23904837
Si       0.39776534       0.67067732       3.63154785      -0.23289731       0.06133649       0.23904837
Si       3.89998265       0.89321265       3.63154785       0.23289731      -0.06133649       0.23904837
Si       3.26293067       0.89321265       5.86033581      -0.23289731      -0.06133649      -0.23904837
Si       2.20576495      -0.42692564       9.17911587       0.11902677      -0.00341743       0.01396186
Si       0.44193519       0.63493339       8.05296795      -0.03112750       0.17941214       0.13612014
Si       3.85581280       0.92895658       8.05296795       0.03112750      -0.17941214       0.13612014
Si       2.09198305       1.99081562       9.17911587      -0.11902677       0.00341743       0.01396186
16
Lattice="5.62954658 0.0 0.0 0.0 47.03022008 0.0 0.0 0.0 51.61996646" Properties=species:S:1:pos:R:3:forces:R:3 virial="-7.286574996683217 0.0 0.0 0.0 -6.303295660679634 0.0 0.0 0.0 -8.088204333500565" energy=-70.6470924 pbc="T T T"
Si       1.04328851       0.34829217       1.74620074       0.64621279       0.56124211       0.09990173
Si      -0.57331218      -0.26425669       0.18517940      -0.64255732       0.41190098       0.20631836
Si       4.79547211       2.07035682       0.18517940       0.64255732      -0.41190098       0.20631836
Si       3.17887142       1.45780796       1.74620074      -0.64621279      -0.56124211       0.09990173
Si       1.30368572       0.09157960       5.93024267       0.32443198       0.25247342      -0.12534934
Si       0.07388605       0.06762475       3.88110241      -0.00185741       0.69415423       0.08601957
Si       4.14827388       1.73847538       3.88110241       0.00185741      -0.69415423       0.08601957
Si       2.91847421       1.71452053       5.93024267      -0.32443198      -0.25247342      -0.12534934
Si       1.33350059       0.06762475       9.99542704       0.00185741       0.69415423      -0.08601957
Si       0.10370092       0.09157960       7.94628627      -0.32443198       0.25247342       0.12534934
Si       4.11845901       1.71452053       7.94628627       0.32443198      -0.25247342       0.12534934
Si       2.88865934       1.73847538       9.99542704      -0.00185741      -0.69415423      -0.08601957
Si       1.98069882      -0.26425669      13.69135005       0.64255732       0.41190098      -0.20631836
Si       0.36409813       0.34829217      12.13032871      -0.64621279       0.56124211      -0.09990173
Si       3.85806180       1.45780796      12.13032871       0.64621279      -0.56124211      -0.09990173
Si       2.24146111       2.07035682      13.69135005      -0.64255732      -0.41190098      -0.20631836
16
Lattice="5.53538539 0.0 0.0 0.0 44.25876184 0.0 0.0 0.0 49.25701188" Properties=species:S:1:pos:R:3:forces:R:3 virial="7.791512962793232 0.0 0.0 0.0 -1.1110001022101292 0.0 0.0 0.0 6.336601137429428" energy=-71.72279689 pbc="T T T"
Si       0.93096038       0.54947740       1.56319935       0.18506002       0.04912850      -0.31337680
Si      -0.87644608      -0.36234206       0.29197143       0.41642106       0.55900582       0.19238570
Si       5.02798512       2.06200996       0.29197143      -0.41642106      -0.55900582       0.19238570
Si       3.22057866       1.15019051       1.56319935      -0.18506002      -0.04912850      -0.31337680
Si       1.25975264       0.14241275       5.63280628      -0.02456096      -0.56118661       0.18789476
Si       0.14349612       0.15974713       3.67350766       0.72589509      -0.03422249      -0.47027700
Si       4.00804292       1.53992077       3.67350766      -0.72589509       0.03422249      -0.47027700
Si       2.89178640       1.55725516       5.63280628       0.02456096       0.56118661       0.18789476
Si       1.24035023       0.15974713       9.56780956      -0.72589509      -0.03422249       0.47027700
Si       0.12409371       0.14241275       7.60851143       0.02456096      -0.56118661      -0.18789476
Si       4.02744533       1.55725516       7.60851143      -0.02456096       0.56118661      -0.18789476
Si       2.91118882       1.53992077       9.56780956       0.72589509       0.03422249       0.47027700
Si       2.26029242      -0.36234206      12.94934628      -0.41642106       0.55900582      -0.19238570
Si       0.45288597       0.54947740      11.67811836      -0.18506002       0.04912850       0.31337680
Si       3.69865307       1.15019051      11.67811836       0.18506002      -0.04912850       0.31337680
Si       1.89124662       2.06200996      12.94934628       0.41642106      -0.55900582      -0.19238570
16
Lattice="5.611539 0.0 0.0 0.0 44.03078784 0.0 0.0 0.0 49.74960357" Properties=species:S:1:pos:R:3:forces:R:3 virial="2.2130662113790316 0.0 0.0 0.0 -1.7991042072795673 0.0 0.0 0.0 1.5449312093146887" energy=-71.98754708 pbc="T T T"
Si       0.94585604       0.55879077       1.56382655       0.17861166       0.00712538      -0.09806166
Si      -0.89068030      -0.34648664       0.30622672       0.47231600       0.27528391       0.18337117
Si       5.09933455       2.03739966       0.30622672      -0.47231600      -0.27528391       0.18337117
Si       3.26279821       1.13212226       1.56382655      -0.17861166      -0.00712538      -0.09806166
Si       1.27632289       0.12769941       5.69313369       0.12863771      -0.24516914       0.07224848
Si       0.17225926       0.16076433       3.69552144       0.33728623       0.42682792      -0.37822173
Si       4.03639499       1.53014869       3.69552144      -0.33728623      -0.42682792      -0.37822173
Si       2.93233136       1.56321361       5.69313369      -0.12863771       0.24516914       0.07224848
Si       1.23062549       0.16076433       9.67821524      -0.33728623       0.42682792       0.37822173
Si       0.12656186       0.12769941       7.68060299      -0.12863771      -0.24516914      -0.07224848
Si       4.08209239       1.56321361       7.68060299       0.12863771       0.24516914      -0.07224848
Si       2.97802876       1.53014869       9.67821524       0.33728623      -0.42682792       0.37822173
Si       2.29356505      -0.34648664      13.06750997      -0.47231600       0.27528391      -0.18337117
Si       0.45702871       0.55879077      11.80991014      -0.17861166       0.00712538       0.09806166
Si       3.75162554       1.13212226      11.80991014       0.17861166      -0.00712538       0.09806166
Si       1.91508920       2.03739966      13.06750997       0.47231600      -0.27528391      -0.18337117
16
Lattice="5.69649718 0.0 0.0 0.0 43.08680659 0.0 0.0 0.0 50.08373211" Properties=species:S:1:pos:R:3:forces:R:3 virial="0.69038397604501 0.0 0.0 0.0 3.270173801833013 0.0 0.0 0.0 -0.1716900794371052" energy=-72.26528921 pbc="T T T"
Si       0.98118062       0.56682461       1.55276748       0.22527252       0.12038823      -0.08546667
Si      -0.85832632      -0.31067785       0.34616974       0.12745319      -0.87455773      -0.08885329
Si       5.13069921       1.96533919       0.34616974      -0.12745319       0.87455773      -0.08885329
Si       3.29119226       1.08783673       1.55276748      -0.22527252      -0.12038823      -0.08546667
Si       1.31651051       0.09647653       5.73800554      -0.15569694      -0.10796260      -0.20308919
Si       0.23261532       0.22823685       3.66233835       0.28214827       0.36989541       0.40458059
Si       4.03975756       1.42642449       3.66233835      -0.28214827      -0.36989541       0.40458059
Si       2.95586237       1.55818481       5.73800554       0.15569694       0.10796260      -0.20308919
Si       1.19150897       0.22823685       9.80121909      -0.28214827       0.36989541      -0.40458059
Si       0.10761378       0.09647653       7.72555191       0.15569694      -0.10796260       0.20308919
Si       4.16475910       1.55818481       7.72555191      -0.15569694       0.10796260       0.20308919
Si       3.08086391       1.42642449       9.80121909       0.28214827      -0.36989541      -0.40458059
Si       2.28245062      -0.31067785      13.11738771      -0.12745319      -0.87455773       0.08885329
Si       0.44294367       0.56682461      11.91078996      -0.22527252       0.12038823       0.08546667
Si       3.82942921       1.08783673      11.91078996       0.22527252      -0.12038823       0.08546667
Si       1.98992227       1.96533919      13.11738771       0.12745319       0.87455773       0.08885329
16
Lattice="5.80952667 0.0 0.0 0.0 41.32136541 0.0 0.0 0.0 49.97902995" Properties=species:S:1:pos:R:3:forces:R:3 virial="0.20170115017142579 0.0 0.0 0.0 -0.26907614928179396 0.0 0.0 0.0 -0.30645242960768393" energy=-72.98432651 pbc="T T T"
Si       0.99489899       0.74850389       1.48913819      -0.05547324       0.04797926       0.02704462
Si      -0.74626821      -0.43857258       0.37554893      -0.05330894       0.03602909       0.04955087
Si       5.10341321       2.02543573       0.37554893       0.05330894      -0.03602909       0.04955087
Si       3.36224602       0.83835927       1.48913819       0.05547324      -0.04797926       0.02704462
Si       1.32227011       0.10115512       5.72046233      -0.03533215       0.01966109      -0.04838817
Si       0.38946962       0.62620422       3.68472897       0.00642941      -0.00375024      -0.10992842
Si       3.96767538       0.96065894       3.68472897      -0.00642941       0.00375024      -0.10992842
Si       3.03487489       1.48570804       5.72046233       0.03533215      -0.01966109      -0.04838817
Si       1.06291205       0.62620422       9.75068234      -0.00642941      -0.00375024       0.10992842
Si       0.13011155       0.10115512       7.71494899       0.03533215       0.01966109       0.04838817
Si       4.22703345       1.48570804       7.71494899      -0.03533215      -0.01966109       0.04838817
Si       3.29423296       0.96065894       9.75068234       0.00642941       0.00375024       0.10992842
Si       2.19864988      -0.43857258      13.05986238       0.05330894       0.03602909      -0.04955087
Si       0.45748268       0.74850389      11.94627312       0.05547324       0.04797926      -0.02704462
Si       3.89966232       0.83835927      11.94627312      -0.05547324      -0.04797926      -0.02704462
Si       2.15849513       2.02543573      13.05986238      -0.05330894      -0.03602909      -0.04955087
16
Lattice="5.87350778 0.0 0.0 0.0 40.45590765 0.0 0.0 0.0 50.38659845" Properties=species:S:1:pos:R:3:forces:R:3 virial="-0.2278995165119588 0.0 0.0 0.0 -0.5687688438717687 0.0 0.0 0.0 0.5509969239001025" energy=-73.01837685 pbc="T T T"
Si       1.01431732       0.77522136       1.48711158      -0.10167810      -0.02157297      -0.03603116
Si      -0.73986786      -0.46283338       0.41267581       0.01240064       0.08073091       0.01030470
Si       5.14499870       2.01646039       0.41267581      -0.01240064      -0.08073091       0.01030470
Si       3.39081351       0.77840565       1.48711158       0.10167810       0.02157297      -0.03603116
Si       1.25309644       0.22659758       5.74288612       0.06767344       0.05434736       0.05141664
Si       0.38165672       0.62940937       3.66518012      -0.06804912       0.02782344      -0.02611547
Si       4.02347412       0.92421764       3.66518012       0.06804912      -0.02782344      -0.02611547
Si       3.15203440       1.32702942       5.74288612      -0.06767344      -0.05434736       0.05141664
Si       1.08672023       0.62940937       9.87979415       0.06804912       0.02782344       0.02611547
Si       0.21528051       0.22659758       7.80208815      -0.06767344       0.05434736      -0.05141664
Si       4.18985033       1.32702942       7.80208815       0.06767344      -0.05434736      -0.05141664
Si       3.31841061       0.92421764       9.87979415      -0.06804912      -0.02782344       0.02611547
Si       2.20824481      -0.46283338      13.13229846      -0.01240064       0.08073091      -0.01030470
Si       0.45405962       0.77522136      12.05786269       0.10167810      -0.02157297       0.03603116
Si       3.95107121       0.77840565      12.05786269      -0.10167810       0.02157297       0.03603116
Si       2.19688603       2.01646039      13.13229846       0.01240064      -0.08073091      -0.01030470
16
Lattice="5.92697755 0.0 0.0 0.0 39.29995659 0.0 0.0 0.0 50.97412343" Properties=species:S:1:pos:R:3:forces:R:3 virial="-0.3371880790574944 0.0 0.0 0.0 0.2821155060802904 0.0 0.0 0.0 -0.2799940922497262" energy=-73.04528647 pbc="T T T"
Si       1.02187844       0.71574692       1.50275386       0.04228596       0.00586547       0.00766127
Si      -0.76512307      -0.46843190       0.42979087       0.03323691      -0.07534398      -0.00619700
Si       5.21035624       1.97766696       0.42979087      -0.03323691       0.07534398      -0.00619700
Si       3.42335472       0.79348813       1.50275386      -0.04228596      -0.00586547       0.00766127
Si       1.19673571       0.38129682       5.80219026       0.00994787       0.03371807       0.05492161
Si       0.37232022       0.64730173       3.68670806      -0.03304671       0.01073326       0.01252507
Si       4.07291294       0.86193333       3.68670806       0.03304671      -0.01073326       0.01252507
Si       3.24849745       1.12793823       5.80219026      -0.00994787      -0.03371807       0.05492161